TITLE = "Measurement locations"
VARIABLES = "num" "i" "j" "k" "value"
 ZONE  F=POINT, I=        8 J=  1, K=1
    1  108  75 1    0.04190
    2  108  75 1    0.05100
    3   77  63 1    0.19573
    4   77  63 1    0.00222
    5   98  39 1    0.19151
    6   98  39 1    0.03001
    7   63  50 1    0.08023
    8   63  50 1    0.00079
